864
step number: 0
0 3.053000 3.081000 0.367000
0 2.801000 0.494000 0.626000
0 0.503000 3.094000 0.677000
0 3.075000 0.550000 0.102000
0 0.262000 0.378000 0.241000
0 0.223000 0.169000 0.538000
0 0.741000 0.443000 2.924000
0 0.204000 0.530000 0.568000
0 0.298000 0.493000 1.303000
0 0.872000 0.147000 1.584000
0 0.227000 0.874000 0.961000
0 0.752000 0.544000 0.880000
0 0.798000 0.528000 1.245000
0 0.584000 0.319000 1.444000
0 0.221000 0.622000 1.970000
0 0.512000 0.085000 2.071000
0 0.302000 0.833000 1.690000
0 0.840000 0.509000 1.607000
0 0.876000 0.487000 1.965000
0 0.508000 0.445000 2.110000
0 0.174000 0.772000 2.649000
0 0.766000 0.701000 2.622000
0 0.427000 0.959000 2.466000
0 0.782000 0.627000 2.278000
0 0.719000 0.802000 2.955000
0 0.456000 0.608000 2.791000
0 0.826000 0.029000 0.520000
0 0.224000 0.399000 2.980000
0 0.771000 0.409000 0.185000
0 0.280000 0.020000 0.209000
0 0.728000 1.129000 0.243000
0 0.167000 1.252000 0.627000
0 0.527000 0.563000 0.411000
0 0.223000 1.097000 0.300000
0 0.982000 1.314000 0.406000
0 0.508000 0.923000 0.440000
0 0.973000 0.979000 0.020000
0 0.450000 1.078000 0.768000
0 0.489000 1.060000 1.132000
0 0.243000 1.216000 1.355000
0 0.774000 0.887000 1.273000
0 0.188000 1.595000 1.020000
0 0.717000 1.263000 0.940000
0 0.754000 1.245000 1.302000
0 0.734000 0.904000 0.910000
0 0.526000 1.041000 1.495000
0 0.556000 1.018000 1.856000
0 0.187000 1.344000 2.032000
0 0.843000 0.846000 1.995000
0 0.252000 1.556000 1.746000
0 0.787000 1.226000 1.664000
0 0.816000 1.202000 2.024000
0 0.811000 0.868000 1.635000
0 0.473000 1.166000 2.173000
0 0.673000 1.515000 2.663000
0 0.128000 1.493000 2.702000
0 0.704000 1.138000 2.639000
0 0.102000 1.505000 2.347000
0 0.738000 1.345000 2.343000
0 1.019000 1.557000 2.859000
0 0.761000 0.984000 2.319000
0 0.700000 1.163000 2.988000
0 0.750000 0.768000 0.215000
0 0.183000 1.116000 3.036000
0 0.666000 1.518000 3.009000
0 1.005000 0.950000 0.385000
0 0.662000 1.849000 0.278000
0 0.137000 1.972000 0.688000
0 0.759000 1.471000 0.643000
0 2.957000 2.486000 0.944000
0 0.897000 2.047000 0.438000
0 0.756000 1.831000 0.681000
0 0.909000 1.705000 0.062000
0 0.420000 1.797000 0.830000
0 0.450000 1.778000 1.192000
0 0.201000 1.935000 1.417000
0 0.734000 1.603000 1.333000
0 0.143000 2.312000 1.083000
0 0.682000 1.981000 1.004000
0 0.712000 1.962000 1.366000
0 0.702000 1.622000 0.971000
0 0.483000 1.759000 1.555000
0 0.516000 1.739000 1.915000
0 0.174000 2.075000 2.104000
0 0.796000 1.563000 2.053000
0 3.056000 2.096000 1.645000
0 0.747000 1.943000 1.730000
0 0.779000 1.930000 2.099000
0 0.766000 1.583000 1.694000
0 0.441000 1.888000 2.230000
0 0.370000 1.697000 2.516000
0 0.046000 2.219000 2.733000
0 0.339000 2.045000 2.873000
0 3.097000 2.235000 2.372000
0 0.459000 2.254000 2.276000
0 0.587000 2.246000 3.024000
0 0.721000 1.700000 2.371000
0 0.692000 1.904000 2.840000
0 0.950000 1.674000 0.418000
0 0.415000 1.663000 0.121000
0 0.618000 2.222000 0.292000
0 0.849000 2.064000 0.064000
0 0.205000 2.181000 0.400000
0 0.112000 2.674000 1.108000
0 0.499000 2.370000 0.593000
0 0.048000 2.571000 0.012000
0 0.228000 2.544000 0.455000
0 0.785000 2.557000 0.779000
0 0.830000 2.437000 0.096000
0 0.358000 2.521000 0.886000
0 0.398000 2.499000 1.251000
0 2.763000 2.632000 1.545000
0 0.685000 2.323000 1.392000
0 0.079000 3.037000 1.125000
0 0.366000 2.863000 1.269000
0 0.654000 2.688000 1.412000
0 0.646000 2.346000 1.031000
0 0.443000 2.480000 1.616000
0 0.224000 2.282000 1.815000
0 3.000000 2.613000 2.015000
0 0.777000 2.288000 2.114000
0 3.037000 2.818000 1.716000
0 0.703000 2.667000 1.775000
0 0.498000 2.467000 1.985000
0 0.728000 2.304000 1.753000
0 0.181000 2.437000 2.149000
0 0.754000 2.390000 2.446000
0 0.227000 2.795000 2.549000
0 0.792000 2.474000 2.826000
0 3.042000 2.965000 2.414000
0 0.783000 2.652000 2.161000
0 0.778000 2.828000 2.860000
0 1.061000 2.499000 2.316000
0 0.551000 2.613000 3.052000
0 0.583000 2.587000 0.318000
0 0.495000 2.991000 2.723000
0 0.301000 2.761000 0.176000
0 0.338000 2.396000 0.148000
0 2.926000 2.847000 0.965000
0 0.318000 2.886000 0.900000
0 0.762000 0.084000 2.892000
0 0.282000 0.149000 0.915000
0 0.332000 0.128000 1.284000
0 0.128000 3.017000 1.493000
0 0.619000 3.054000 1.426000
0 0.488000 0.357000 0.709000
0 0.220000 3.003000 1.891000
0 0.228000 0.262000 1.934000
0 3.000000 2.972000 2.052000
0 0.502000 2.827000 2.026000
0 0.625000 0.297000 1.806000
0 0.188000 0.052000 2.227000
0 0.484000 2.968000 2.367000
0 0.212000 0.055000 2.584000
0 0.807000 3.071000 2.557000
0 0.475000 0.229000 2.405000
0 0.529000 2.971000 3.084000
0 0.510000 2.732000 0.640000
0 1.051000 0.232000 0.326000
0 1.090000 0.213000 0.692000
0 0.545000 0.204000 0.380000
0 1.356000 0.400000 0.861000
0 1.309000 0.415000 0.494000
0 1.847000 0.426000 0.790000
0 0.770000 0.182000 0.850000
0 1.523000 0.622000 0.293000
0 0.809000 0.388000 0.551000
0 0.538000 0.339000 1.079000
0 1.085000 0.356000 1.385000
0 1.372000 0.183000 1.525000
0 0.790000 0.748000 0.583000
0 1.305000 0.558000 1.188000
0 1.590000 0.384000 1.326000
0 1.349000 0.544000 1.551000
0 1.416000 0.167000 1.889000
0 0.915000 0.125000 1.943000
0 1.129000 0.338000 1.746000
0 1.201000 3.059000 2.085000
0 1.061000 0.715000 1.412000
0 1.163000 0.321000 2.106000
0 1.673000 0.356000 2.057000
0 0.797000 3.011000 2.204000
0 1.086000 0.118000 2.387000
0 0.792000 0.329000 2.593000
0 0.796000 0.270000 2.243000
0 1.357000 0.305000 2.568000
0 1.132000 0.679000 2.131000
0 1.073000 0.472000 2.420000
0 1.342000 0.664000 2.599000
0 1.067000 0.830000 2.806000
0 1.366000 0.649000 2.955000
0 0.791000 0.051000 0.155000
0 0.998000 0.619000 3.092000
0 1.589000 0.239000 0.631000
0 1.029000 0.591000 0.356000
0 1.248000 0.798000 0.158000
0 1.800000 0.446000 0.425000
0 1.217000 1.156000 0.187000
0 1.286000 0.776000 0.522000
0 1.259000 1.137000 0.548000
0 1.073000 0.573000 0.722000
0 1.450000 1.356000 0.332000
0 1.541000 0.964000 0.680000
0 0.773000 1.110000 0.612000
0 1.634000 1.195000 0.067000
0 1.055000 0.934000 0.754000
0 1.019000 0.730000 1.050000
0 1.040000 1.073000 1.442000
0 1.003000 1.089000 1.081000
0 1.616000 0.730000 1.719000
0 1.040000 1.295000 0.786000
0 1.326000 1.122000 0.923000
0 1.274000 1.274000 1.251000
0 1.290000 0.916000 1.219000
0 1.340000 0.761000 0.891000
0 1.562000 1.101000 1.389000
0 1.100000 0.697000 1.773000
0 1.105000 1.035000 2.160000
0 1.074000 1.054000 1.802000
0 1.388000 0.528000 1.913000
0 1.019000 1.429000 1.473000
0 1.307000 1.257000 1.612000
0 1.595000 1.087000 1.750000
0 1.363000 0.885000 1.942000
0 1.328000 0.901000 1.580000
0 1.366000 1.228000 2.338000
0 1.056000 0.825000 2.450000
0 1.031000 1.175000 2.482000
0 1.322000 1.022000 2.631000
0 1.080000 1.392000 2.190000
0 1.301000 1.381000 2.670000
0 1.923000 1.240000 2.648000
0 1.041000 1.192000 2.837000
0 1.392000 0.869000 2.304000
0 1.633000 1.414000 2.512000
0 1.347000 1.011000 2.987000
0 0.962000 1.353000 0.050000
0 1.493000 0.985000 0.317000
0 1.325000 1.724000 3.074000
0 1.616000 1.913000 0.137000
0 1.919000 1.381000 0.238000
0 1.137000 1.904000 0.218000
0 1.224000 1.502000 0.567000
0 1.184000 1.871000 0.580000
0 1.508000 1.329000 0.698000
0 1.392000 2.080000 0.375000
0 1.469000 1.695000 0.714000
0 1.034000 1.658000 0.823000
0 1.578000 1.568000 2.844000
0 1.317000 1.484000 0.958000
0 0.987000 1.447000 1.113000
0 0.996000 1.787000 1.506000
0 0.967000 1.806000 1.146000
0 1.604000 1.310000 1.095000
0 1.043000 2.020000 0.869000
0 1.335000 2.205000 1.051000
0 1.223000 1.993000 1.315000
0 1.254000 1.632000 1.285000
0 1.753000 1.522000 0.849000
0 1.283000 1.613000 1.646000
0 1.050000 1.410000 1.833000
0 1.059000 1.755000 2.233000
0 1.028000 1.768000 1.870000
0 1.570000 1.443000 1.785000
0 0.971000 2.147000 1.535000
0 1.256000 1.972000 1.678000
0 1.288000 1.957000 2.047000
0 1.313000 1.598000 2.010000
0 1.542000 1.459000 1.423000
0 1.343000 1.586000 2.374000
0 1.009000 1.521000 2.511000
0 0.535000 2.265000 2.678000
0 1.616000 1.773000 2.545000
0 1.026000 2.127000 2.314000
0 0.984000 1.861000 2.570000
0 1.608000 2.134000 2.578000
0 1.057000 1.918000 2.920000
0 1.338000 1.241000 1.974000
0 1.293000 1.742000 2.707000
0 1.328000 1.373000 3.031000
0 1.629000 1.556000 0.102000
0 1.702000 1.544000 0.482000
0 1.106000 2.257000 0.238000
0 1.337000 2.092000 0.001000
0 1.405000 1.710000 0.342000
0 1.088000 2.616000 0.266000
0 0.863000 2.411000 0.461000
0 0.842000 2.770000 0.489000
0 1.060000 2.381000 0.916000
0 1.121000 2.594000 0.630000
0 1.402000 2.419000 0.769000
0 0.769000 2.195000 0.733000
0 1.606000 2.274000 0.171000
0 1.061000 2.744000 0.956000
0 0.934000 2.169000 1.174000
0 0.942000 2.512000 1.553000
0 0.606000 2.711000 1.047000
0 1.185000 2.358000 1.336000
0 0.570000 3.076000 1.061000
0 1.051000 0.008000 0.989000
0 1.147000 2.726000 1.348000
0 0.896000 2.535000 1.191000
0 1.338000 2.568000 1.092000
0 1.226000 2.335000 1.700000
0 1.010000 2.126000 1.900000
0 1.084000 2.862000 2.349000
0 0.989000 2.492000 1.917000
0 1.261000 2.315000 2.076000
0 0.667000 3.032000 1.788000
0 0.908000 2.880000 1.568000
0 1.196000 2.704000 1.711000
0 1.348000 2.680000 2.491000
0 1.472000 2.182000 1.480000
0 1.116000 2.478000 2.676000
0 0.907000 2.175000 2.687000
0 0.812000 2.722000 2.520000
0 1.275000 2.119000 2.731000
0 1.100000 0.111000 2.743000
0 1.330000 2.457000 0.043000
0 1.590000 2.635000 0.210000
0 0.810000 2.794000 0.124000
0 1.332000 2.311000 2.441000
0 1.057000 2.642000 3.000000
0 1.067000 2.283000 2.978000
0 0.562000 2.946000 0.348000
0 1.145000 2.233000 0.601000
0 1.070000 2.973000 0.296000
0 1.298000 0.077000 0.102000
0 1.367000 2.437000 0.406000
0 1.330000 0.055000 0.466000
0 0.782000 2.920000 0.817000
0 1.106000 2.953000 0.661000
0 1.275000 0.438000 0.131000
0 1.036000 0.370000 1.019000
0 0.858000 2.901000 1.205000
0 1.113000 3.092000 1.363000
0 1.320000 0.197000 1.158000
0 0.825000 0.166000 1.221000
0 0.957000 2.859000 1.928000
0 1.239000 2.687000 2.076000
0 1.161000 3.074000 1.725000
0 1.485000 2.883000 2.235000
0 1.041000 3.000000 3.032000
0 1.318000 2.817000 0.071000
0 1.361000 3.044000 2.533000
0 1.086000 0.471000 2.775000
0 1.021000 0.259000 3.062000
0 1.609000 2.978000 0.604000
0 1.550000 0.259000 0.267000
0 1.868000 0.063000 0.767000
0 2.049000 0.636000 0.577000
0 2.076000 0.270000 0.558000
0 2.101000 0.615000 0.944000
0 2.299000 0.827000 0.728000
0 1.372000 0.039000 0.831000
0 1.959000 0.291000 0.144000
0 2.126000 0.250000 0.925000
0 1.639000 0.226000 0.998000
0 1.910000 0.414000 1.166000
0 2.154000 0.036000 1.605000
0 1.626000 0.588000 1.028000
0 2.380000 0.439000 1.078000
0 2.471000 0.427000 1.475000
0 1.872000 0.210000 1.466000
0 1.863000 0.570000 1.496000
0 1.446000 2.900000 1.872000
0 1.635000 0.372000 1.691000
0 1.957000 0.182000 2.199000
0 1.649000 0.714000 2.084000
0 1.901000 0.558000 1.860000
0 2.186000 0.384000 2.000000
0 1.918000 0.198000 1.833000
0 2.221000 0.368000 2.364000
0 1.392000 3.024000 2.890000
0 1.448000 0.149000 2.253000
0 1.975000 3.025000 0.114000
0 1.418000 0.510000 2.277000
0 1.966000 0.522000 2.588000
0 2.254000 0.348000 2.727000
0 1.641000 0.128000 2.710000
0 1.917000 0.314000 2.884000
0 1.381000 0.287000 2.924000
0 1.663000 0.469000 0.001000
0 1.825000 0.082000 0.401000
0 1.647000 0.832000 0.032000
0 1.944000 0.655000 0.174000
0 2.238000 0.478000 0.317000
0 1.930000 1.019000 0.206000
0 1.771000 0.811000 0.447000
0 1.736000 1.180000 0.464000
0 2.018000 1.003000 0.596000
0 2.191000 1.569000 0.407000
0 2.476000 1.396000 0.543000
0 1.566000 0.601000 0.657000
0 1.901000 0.675000 2.914000
0 1.821000 0.790000 0.811000
0 1.577000 0.744000 1.357000
0 1.613000 0.949000 1.059000
0 1.790000 1.156000 0.830000
0 2.181000 0.963000 1.371000
0 1.987000 1.369000 0.616000
0 2.173000 1.324000 1.409000
0 2.315000 1.173000 1.116000
0 2.071000 0.981000 0.962000
0 1.901000 0.776000 1.197000
0 1.851000 0.929000 1.527000
0 1.935000 0.541000 2.225000
0 1.679000 0.697000 2.447000
0 1.882000 0.915000 1.890000
0 2.169000 0.742000 2.030000
0 1.892000 1.137000 1.232000
0 2.120000 1.114000 1.699000
0 1.912000 0.899000 2.254000
0 2.147000 1.099000 2.061000
0 2.137000 0.755000 1.667000
0 2.178000 1.083000 2.423000
0 1.704000 0.337000 2.421000
0 1.655000 1.056000 2.478000
0 1.944000 0.882000 2.617000
0 1.625000 1.071000 2.114000
0 2.155000 1.441000 2.454000
0 2.195000 1.426000 2.816000
0 1.611000 0.850000 2.774000
0 2.200000 0.726000 2.393000
0 1.885000 1.035000 2.945000
0 1.629000 0.490000 2.742000
0 1.593000 1.210000 2.809000
0 2.221000 0.843000 0.345000
0 1.905000 1.742000 0.271000
0 1.870000 1.395000 2.977000
0 2.207000 1.207000 0.375000
0 2.144000 1.583000 0.044000
0 1.958000 1.730000 0.642000
0 1.671000 1.901000 0.505000
0 2.458000 1.757000 0.576000
0 2.173000 1.928000 0.440000
0 2.216000 1.915000 0.808000
0 2.242000 1.557000 0.776000
0 2.179000 1.787000 2.847000
0 1.715000 1.885000 0.873000
0 2.036000 1.348000 0.982000
0 1.511000 1.818000 1.455000
0 1.321000 1.844000 1.003000
0 1.999000 1.712000 1.008000
0 1.431000 2.059000 0.739000
0 1.967000 2.072000 1.040000
0 1.891000 1.859000 1.320000
0 1.602000 1.671000 1.138000
0 2.524000 1.382000 0.911000
0 1.801000 1.646000 1.594000
0 1.831000 1.287000 1.561000
0 1.600000 1.428000 2.149000
0 1.541000 1.801000 1.818000
0 1.859000 1.272000 1.922000
0 1.760000 2.009000 1.621000
0 2.053000 1.836000 1.759000
0 2.090000 1.816000 2.120000
0 1.830000 1.629000 1.955000
0 1.887000 1.498000 1.273000
0 1.865000 1.613000 2.318000
0 1.889000 1.256000 2.286000
0 1.323000 1.947000 2.411000
0 2.131000 1.800000 2.483000
0 1.576000 1.785000 2.182000
0 2.103000 2.162000 2.506000
0 2.393000 1.989000 2.644000
0 1.842000 1.972000 2.346000
0 2.381000 1.643000 2.257000
0 1.892000 1.960000 2.713000
0 1.905000 1.600000 2.680000
0 1.855000 1.757000 3.008000
0 2.431000 1.410000 0.180000
0 1.888000 2.100000 0.305000
0 2.128000 1.944000 0.076000
0 2.397000 2.131000 0.245000
0 1.869000 2.457000 0.340000
0 1.650000 2.261000 0.540000
0 1.628000 2.618000 0.574000
0 1.931000 2.087000 0.674000
0 1.909000 2.444000 0.709000
0 2.170000 2.629000 0.875000
0 1.684000 2.245000 0.905000
0 2.367000 2.493000 0.275000
0 1.666000 2.604000 0.938000
0 1.612000 2.031000 1.186000
0 1.433000 2.549000 1.494000
0 1.386000 2.778000 0.800000
0 1.893000 2.220000 1.365000
0 1.652000 2.964000 0.969000
0 1.932000 2.791000 1.107000
0 1.611000 2.757000 1.266000
0 1.615000 2.393000 1.229000
0 1.946000 2.431000 1.074000
0 1.719000 2.375000 1.639000
0 1.509000 2.162000 1.846000
0 1.524000 2.512000 2.223000
0 1.477000 2.527000 1.861000
0 1.799000 1.989000 1.983000
0 1.399000 2.918000 1.506000
0 1.601000 0.022000 1.297000
0 1.766000 2.354000 2.002000
0 1.553000 2.144000 2.209000
0 2.010000 2.201000 1.779000
0 1.775000 2.708000 2.378000
0 1.618000 2.499000 2.615000
0 1.814000 2.335000 2.365000
0 1.890000 2.323000 2.750000
0 1.109000 2.849000 2.708000
0 2.026000 2.901000 2.535000
0 2.067000 2.529000 2.519000
0 1.546000 2.302000 2.900000
0 2.056000 2.180000 2.141000
0 2.169000 2.149000 2.882000
0 1.563000 1.930000 2.874000
0 1.838000 2.119000 3.040000
0 2.152000 2.285000 0.475000
0 1.349000 2.795000 0.436000
0 1.812000 2.485000 3.067000
0 2.106000 2.305000 0.108000
0 1.573000 2.997000 0.239000
0 1.889000 2.802000 0.740000
0 2.149000 2.988000 0.903000
0 1.686000 2.839000 3.034000
0 1.920000 0.052000 1.137000
0 1.332000 2.933000 1.127000
0 1.881000 2.947000 1.437000
0 2.192000 0.240000 1.304000
0 1.656000 0.009000 1.668000
0 1.730000 2.725000 2.017000
0 1.985000 2.919000 2.175000
0 1.699000 3.093000 2.034000
0 1.734000 3.074000 2.397000
0 1.634000 2.865000 2.670000
0 1.925000 3.051000 2.849000
0 1.990000 0.162000 2.561000
0 1.676000 0.105000 3.069000
0 1.401000 2.654000 2.855000
0 1.847000 2.818000 0.375000
0 2.463000 0.687000 0.121000
0 2.101000 3.005000 0.535000
0 2.493000 1.033000 0.513000
0 2.511000 0.668000 0.485000
0 2.733000 0.875000 0.289000
0 2.751000 0.514000 0.261000
0 2.327000 0.460000 0.710000
0 2.206000 0.139000 3.023000
0 2.579000 0.651000 0.863000
0 2.201000 2.978000 1.274000
0 2.407000 0.075000 1.060000
0 2.755000 0.253000 1.615000
0 2.349000 0.806000 1.095000
0 2.629000 0.630000 1.229000
0 2.909000 0.455000 1.366000
0 2.474000 0.066000 1.442000
0 2.431000 0.222000 1.775000
0 2.203000 0.025000 1.973000
0 2.147000 0.396000 1.636000
0 2.715000 0.048000 1.914000
0 2.469000 0.788000 1.511000
0 2.455000 0.569000 2.169000
0 2.985000 0.591000 2.121000
0 2.471000 0.211000 2.139000
0 2.723000 0.754000 2.339000
0 2.508000 0.195000 2.503000
0 2.245000 0.008000 2.337000
0 3.059000 0.210000 2.809000
0 2.436000 0.927000 2.199000
0 2.753000 0.739000 2.700000
0 3.009000 0.582000 2.479000
0 2.487000 0.553000 2.532000
0 2.773000 0.380000 2.671000
0 2.210000 2.879000 2.981000
0 2.191000 0.500000 3.053000
0 2.480000 0.326000 0.093000
0 2.175000 0.861000 3.083000
0 2.521000 0.534000 2.894000
0 2.808000 0.363000 3.033000
0 2.716000 1.237000 0.318000
0 2.447000 1.048000 0.150000
0 2.700000 1.598000 0.349000
0 2.779000 0.858000 0.652000
0 2.753000 1.442000 0.021000
0 2.984000 1.425000 0.487000
0 2.551000 1.018000 0.885000
0 2.502000 0.894000 2.923000
0 2.760000 1.222000 0.681000
0 2.186000 0.601000 1.336000
0 2.460000 1.149000 1.547000
0 2.594000 0.997000 1.250000
0 2.873000 0.821000 1.387000
0 2.270000 1.194000 0.750000
0 2.805000 1.206000 1.048000
0 3.086000 1.030000 1.187000
0 2.841000 1.186000 1.412000
0 2.747000 0.974000 1.687000
0 2.424000 0.581000 1.807000
0 2.411000 1.284000 2.229000
0 2.408000 0.941000 1.839000
0 2.697000 0.766000 1.979000
0 2.453000 1.511000 1.586000
0 2.735000 1.335000 1.722000
0 3.019000 1.160000 1.861000
0 2.674000 1.128000 2.010000
0 2.701000 1.112000 2.368000
0 2.466000 0.911000 2.561000
0 2.120000 1.457000 2.092000
0 3.039000 0.568000 2.840000
0 2.383000 1.301000 1.869000
0 2.672000 1.471000 2.396000
0 2.965000 1.301000 2.536000
0 2.213000 1.067000 2.785000
0 2.444000 1.268000 2.590000
0 2.233000 0.708000 2.755000
0 2.159000 1.221000 0.013000
0 3.000000 1.064000 0.457000
0 2.484000 1.253000 2.952000
0 2.733000 1.097000 2.728000
0 2.771000 1.082000 3.091000
0 2.684000 1.959000 0.381000
0 2.437000 2.114000 0.610000
0 2.660000 2.319000 0.414000
0 2.742000 1.584000 0.712000
0 2.732000 2.168000 0.090000
0 2.969000 1.786000 0.518000
0 2.499000 1.742000 0.942000
0 2.939000 2.008000 2.940000
0 2.722000 1.943000 0.745000
0 2.281000 1.538000 1.142000
0 2.171000 1.685000 1.452000
0 2.250000 1.900000 1.174000
0 2.561000 1.363000 1.276000
0 2.476000 2.100000 0.977000
0 2.759000 1.927000 1.111000
0 3.040000 1.752000 1.247000
0 2.533000 1.725000 1.307000
0 2.728000 1.699000 1.760000
0 2.092000 1.474000 1.731000
0 2.346000 1.663000 1.896000
0 2.303000 2.027000 1.918000
0 2.641000 1.489000 2.036000
0 2.172000 2.048000 1.497000
0 2.450000 1.874000 1.627000
0 3.000000 1.887000 1.932000
0 2.598000 1.852000 2.058000
0 2.638000 1.832000 2.419000
0 2.420000 1.627000 2.619000
0 2.346000 2.006000 2.280000
0 2.709000 1.455000 2.757000
0 2.260000 2.395000 1.934000
0 2.601000 2.199000 2.438000
0 2.893000 2.024000 2.578000
0 2.466000 1.614000 2.983000
0 2.970000 1.645000 2.921000
0 2.738000 1.804000 0.052000
0 2.415000 1.771000 0.212000
0 0.207000 1.459000 0.329000
0 2.453000 1.977000 3.017000
0 2.682000 1.816000 2.782000
0 3.023000 1.632000 0.190000
0 2.619000 2.683000 0.437000
0 2.412000 2.471000 0.642000
0 2.127000 2.643000 0.506000
0 2.950000 2.146000 0.550000
0 2.319000 2.857000 0.291000
0 2.639000 3.020000 0.826000
0 2.192000 2.271000 0.843000
0 2.902000 2.375000 2.954000
0 2.383000 2.831000 0.668000
0 2.228000 2.259000 1.209000
0 2.169000 2.411000 1.538000
0 1.889000 2.583000 1.404000
0 2.510000 2.086000 1.342000
0 2.431000 2.815000 1.038000
0 2.453000 2.456000 1.010000
0 2.494000 2.446000 1.377000
0 2.737000 2.284000 1.145000
0 2.448000 2.238000 1.670000
0 1.970000 2.569000 1.794000
0 2.019000 2.550000 2.157000
0 1.683000 2.742000 1.652000
0 2.552000 2.219000 2.075000
0 1.939000 2.935000 1.811000
0 2.162000 2.774000 1.574000
0 2.443000 2.601000 1.709000
0 2.226000 2.762000 1.950000
0 2.309000 2.374000 2.298000
0 2.358000 2.354000 2.661000
0 2.563000 2.569000 2.454000
0 2.609000 2.549000 2.815000
0 2.532000 2.934000 2.475000
0 2.514000 2.587000 2.090000
0 2.820000 2.761000 2.613000
0 1.911000 2.691000 2.796000
0 2.569000 2.915000 2.837000
0 2.649000 2.181000 2.801000
0 2.452000 2.340000 3.058000
0 2.670000 2.659000 0.806000
0 2.068000 2.669000 0.132000
0 2.482000 2.703000 0.012000
0 2.755000 2.530000 0.142000
0 2.495000 3.066000 0.060000
0 2.355000 0.094000 0.691000
0 2.258000 0.114000 0.290000
0 2.541000 0.176000 2.865000
0 2.608000 0.284000 0.844000
0 2.212000 2.618000 1.243000
0 2.690000 3.002000 1.197000
0 2.661000 0.264000 1.213000
0 2.437000 2.963000 1.743000
0 2.273000 2.744000 2.314000
0 2.488000 2.951000 2.111000
0 2.711000 0.406000 1.947000
0 2.756000 0.038000 2.277000
0 2.316000 2.724000 2.676000
0 2.794000 0.022000 2.640000
0 2.741000 0.396000 2.308000
0 2.280000 3.089000 2.699000
0 2.178000 2.513000 2.927000
0 0.016000 2.933000 0.040000
0 2.776000 2.892000 0.193000
0 2.832000 0.133000 0.608000
0 2.769000 0.154000 0.231000
0 3.092000 0.322000 0.770000
0 3.039000 0.342000 0.400000
0 2.532000 0.304000 0.460000
0 0.244000 0.041000 2.947000
0 2.862000 0.475000 1.000000
0 2.944000 0.091000 1.352000
0 0.252000 0.512000 0.936000
0 0.378000 0.106000 1.648000
0 3.065000 0.685000 0.793000
0 0.512000 0.700000 1.104000
0 2.756000 2.992000 1.579000
0 0.053000 0.645000 1.526000
0 2.719000 2.789000 1.879000
0 0.337000 0.471000 1.666000
0 0.186000 2.795000 2.188000
0 2.756000 0.613000 1.652000
0 0.587000 0.658000 1.830000
0 3.043000 0.438000 1.794000
0 2.998000 0.230000 2.088000
0 3.027000 0.223000 2.447000
0 0.177000 0.413000 2.263000
0 0.477000 0.250000 2.759000
0 0.157000 0.775000 2.294000
0 0.455000 0.594000 2.437000
0 0.194000 0.413000 2.619000
0 2.829000 0.004000 3.003000
0 3.081000 2.951000 2.777000
0 3.095000 0.192000 0.071000
0 0.233000 2.906000 0.502000
0 2.789000 0.722000 3.062000
0 0.510000 0.228000 0.017000
0 3.057000 0.910000 0.131000
0 3.019000 0.703000 0.428000
0 0.185000 0.891000 0.597000
0 0.468000 0.718000 0.738000
0 0.490000 1.283000 0.471000
0 3.043000 1.048000 0.820000
0 0.489000 0.586000 0.048000
0 2.832000 0.842000 1.022000
0 0.014000 0.667000 1.161000
0 0.207000 1.235000 0.990000
0 0.553000 0.681000 1.468000
0 3.024000 1.409000 0.850000
0 0.470000 1.420000 1.161000
0 0.268000 0.855000 1.327000
0 0.020000 1.009000 1.550000
0 3.034000 0.798000 1.828000
0 0.273000 1.194000 1.717000
0 0.492000 0.806000 2.143000
0 3.093000 1.372000 1.578000
0 0.533000 1.378000 1.884000
0 0.205000 0.983000 2.002000
0 2.965000 0.953000 2.151000
0 2.989000 0.941000 2.508000
0 0.132000 1.140000 2.322000
0 0.437000 0.967000 2.820000
0 2.938000 1.316000 2.179000
0 0.400000 1.327000 2.492000
0 0.153000 1.132000 2.677000
0 3.019000 0.927000 2.868000
0 0.204000 0.757000 3.010000
0 0.468000 0.945000 0.077000
0 0.243000 0.737000 0.271000
0 2.997000 1.286000 2.895000
0 0.680000 2.033000 2.453000
0 3.039000 1.271000 0.159000
0 0.152000 1.613000 0.657000
0 0.197000 1.822000 0.359000
0 0.434000 1.438000 0.798000
0 0.477000 1.646000 0.502000
0 3.006000 1.769000 0.881000
0 0.414000 1.326000 2.844000
0 2.781000 1.568000 1.078000
0 3.062000 1.392000 1.215000
0 0.168000 1.953000 1.052000
0 0.503000 1.400000 1.524000
0 2.984000 2.127000 0.914000
0 0.427000 2.137000 1.224000
0 0.221000 1.576000 1.385000
0 2.813000 1.549000 1.442000
0 3.005000 1.522000 1.894000
0 3.072000 1.734000 1.610000
0 0.452000 1.527000 2.202000
0 2.792000 1.911000 1.475000
0 0.235000 1.919000 1.780000
0 0.174000 1.707000 2.064000
0 2.896000 1.677000 2.200000
0 2.931000 1.659000 2.559000
0 0.048000 1.866000 2.361000
0 0.390000 1.692000 2.866000
0 2.847000 2.043000 2.217000
0 0.296000 2.059000 2.516000
0 0.086000 1.851000 2.719000
0 0.127000 1.835000 3.080000
0 0.159000 1.475000 3.060000
0 0.442000 1.302000 0.103000
0 0.698000 1.487000 0.266000
0 2.854000 2.393000 2.593000
0 0.386000 2.023000 0.127000
0 3.028000 2.357000 0.272000
0 0.109000 2.333000 0.717000
0 2.915000 2.508000 0.579000
0 0.396000 2.157000 0.861000
0 0.068000 2.696000 0.739000
0 2.715000 2.642000 1.174000
0 0.092000 2.200000 3.094000
0 2.698000 2.300000 0.778000
0 3.020000 2.110000 1.280000
0 2.999000 2.469000 1.311000
0 0.464000 2.119000 1.587000
0 2.893000 0.110000 0.982000
0 0.158000 2.655000 1.476000
0 0.181000 2.294000 1.449000
0 2.775000 2.272000 1.510000
0 2.725000 2.063000 1.801000
0 3.044000 2.458000 1.680000
0 0.503000 2.104000 1.948000
0 2.482000 2.805000 1.410000
0 0.218000 2.643000 1.851000
0 2.999000 2.252000 1.974000
0 2.722000 2.427000 1.842000
0 2.804000 2.411000 2.231000
0 3.062000 2.603000 2.387000
0 0.295000 2.420000 2.890000
0 2.774000 2.777000 2.250000
0 0.510000 2.631000 2.685000
0 0.250000 2.429000 2.525000
0 0.009000 2.589000 2.750000
0 3.013000 1.995000 0.224000
0 0.267000 2.783000 2.913000
0 0.479000 2.008000 0.542000
0 2.859000 2.743000 2.974000
0 0.474000 2.612000 2.325000
0 2.872000 2.872000 0.595000
0 2.574000 3.046000 0.448000
0 0.027000 3.060000 0.753000
0 3.053000 2.719000 0.325000
0 0.046000 0.301000 1.141000
0 2.974000 2.829000 1.336000
0 0.415000 2.842000 1.635000
0 0.092000 0.281000 1.507000
0 3.037000 0.078000 1.754000
864
step number: 1
0 3.053013 3.080999 0.367004
0 2.800983 0.494031 0.626027
0 0.503027 3.094037 0.677011
0 3.075030 0.550028 0.101999
0 0.261987 0.378020 0.240974
0 0.222985 0.168981 0.538025
0 0.741026 0.443004 2.923974
0 0.204017 0.530022 0.568038
0 0.297991 0.492979 1.302981
0 0.872023 0.146979 1.584008
0 0.226994 0.873994 0.961035
0 0.752011 0.543997 0.879980
0 0.797981 0.527955 1.244992
0 0.584017 0.319029 1.444016
0 0.220994 0.622016 1.969987
0 0.511979 0.085022 2.071000
0 0.301972 0.832970 1.689988
0 0.839986 0.508995 1.607007
0 0.876000 0.486979 1.965038
0 0.507967 0.444999 2.109972
0 0.174003 0.772009 2.649045
0 0.765966 0.701037 2.622029
0 0.427011 0.959016 2.466036
0 0.782005 0.626994 2.277956
0 0.718994 0.802001 2.954986
0 0.456004 0.608004 2.790978
0 0.826015 0.028984 0.520023
0 0.224007 0.398988 2.979991
0 0.771035 0.409018 0.185036
0 0.279997 0.019995 0.208997
0 0.728026 1.129005 0.243019
0 0.166998 1.252017 0.626981
0 0.527013 0.563005 0.410985
0 0.223000 1.097015 0.300018
0 0.981968 1.313997 0.405997
0 0.508028 0.923013 0.440022
0 0.973053 0.979018 0.019993
0 0.450034 1.078003 0.768004
0 0.489021 1.060029 1.131991
0 0.243009 1.216016 1.354988
0 0.774033 0.887016 1.272987
0 0.187964 1.594969 1.020038
0 0.716983 1.263017 0.940023
0 0.753974 1.245015 1.302002
0 0.733974 0.904022 0.910002
0 0.525993 1.041012 1.495013
0 0.556026 1.017993 1.856003
0 0.186990 1.344026 2.032021
0 0.842979 0.845971 1.995018
0 0.251994 1.555987 1.746026
0 0.786993 1.225957 1.663993
0 0.816017 1.202019 2.024035
0 0.811035 0.867999 1.635012
0 0.472992 1.165994 2.173016
0 0.673030 1.514967 2.663028
0 0.127988 1.493024 2.701981
0 0.704010 1.137962 2.639012
0 0.102000 1.504988 2.347038
0 0.738027 1.344986 2.343014
0 1.018988 1.557025 2.859006
0 0.760983 0.983981 2.318974
0 0.699991 1.162989 2.987997
0 0.749983 0.768013 0.215039
0 0.182959 1.115979 3.036020
0 0.666038 1.518018 3.009029
0 1.004994 0.950006 0.385013
0 0.662041 1.849059 0.278005
0 0.136963 1.972015 0.687981
0 0.759021 1.471009 0.642991
0 2.957013 2.485976 0.943972
0 0.896992 2.046960 0.437981
0 0.755989 1.831046 0.680972
0 0.908958 1.705029 0.061969
0 0.419978 1.797013 0.829975
0 0.450033 1.778018 1.192053
0 0.201026 1.934986 1.417021
0 0.733977 1.603012 1.332984
0 0.142968 2.311996 1.082990
0 0.681980 1.981010 1.003996
0 0.711954 1.961971 1.365990
0 0.702019 1.621966 0.971046
0 0.483021 1.759028 1.555024
0 0.516003 1.739030 1.914992
0 0.173988 2.074998 2.104010
0 0.795994 1.562982 2.053025
0 3.055976 2.096037 1.644986
0 0.746975 1.942968 1.729978
0 0.779021 1.929979 2.099019
0 0.765986 1.583052 1.693997
0 0.441030 1.888007 2.230017
0 0.370010 1.696994 2.516007
0 0.046050 2.218994 2.733001
0 0.339005 2.045010 2.873011
0 3.096992 2.234965 2.372017
0 0.458987 2.254008 2.275999
0 0.586995 2.246032 3.024026
0 0.720997 1.699972 2.370997
0 0.692033 1.903974 2.839973
0 0.950002 1.674031 0.418020
0 0.414977 1.662969 0.121010
0 0.618024 2.222029 0.292027
0 0.849004 2.063970 0.064045
0 0.204959 2.181035 0.400005
0 0.112029 2.674002 1.107954
0 0.498992 2.370016 0.593030
0 0.048021 2.570973 0.012004
0 0.228001 2.543999 0.454995
0 0.785010 2.557015 0.779018
0 0.829972 2.436973 0.096017
0 0.357973 2.521024 0.885955
0 0.398020 2.499010 1.250984
0 2.763046 2.631986 1.544997
0 0.684985 2.323045 1.391980
0 0.079023 3.037005 1.124962
0 0.365984 2.863002 1.268960
0 0.653972 2.687984 1.411952
0 0.645976 2.345991 1.030990
0 0.442995 2.479980 1.615958
0 0.223984 2.282006 1.814994
0 3.000033 2.613020 2.014983
0 0.777029 2.287965 2.114005
0 3.037023 2.818003 1.716001
0 0.703017 2.666996 1.775017
0 0.498024 2.467006 1.985018
0 0.727994 2.304012 1.753022
0 0.181028 2.437016 2.148966
0 0.754008 2.390096 2.445972
0 0.226997 2.795001 2.548989
0 0.792009 2.474017 2.825992
0 3.041995 2.965003 2.413981
0 0.783007 2.651970 2.160995
0 0.778002 2.827974 2.859995
0 1.061011 2.498980 2.316002
0 0.550975 2.612978 3.052016
0 0.582975 2.587005 0.317984
0 0.494990 2.991026 2.722966
0 0.301026 2.760994 0.176026
0 0.337992 2.396009 0.147982
0 2.925998 2.847019 0.965011
0 0.317957 2.885993 0.900016
0 0.761967 0.084027 2.891996
0 0.281978 0.149017 0.914991
0 0.331960 0.127999 1.283967
0 0.128022 3.016995 1.493017
0 0.619011 3.054001 1.426010
0 0.487999 0.356982 0.709005
0 0.219969 3.003001 1.891009
0 0.227965 0.262004 1.933974
0 2.999996 2.972004 2.051977
0 0.501994 2.826981 2.026020
0 0.624964 0.296973 1.805990
0 0.187977 0.052021 2.227007
0 0.483956 2.968024 2.367025
0 0.212006 0.054963 2.584028
0 0.806952 3.071077 2.556965
0 0.474984 0.229036 2.404986
0 0.528988 2.970997 3.084019
0 0.510000 2.731982 0.640015
0 1.051001 0.231987 0.325969
0 1.090041 0.212991 0.691970
0 0.545031 0.204010 0.379998
0 1.356019 0.399983 0.860982
0 1.309015 0.414996 0.494022
0 1.846987 0.426017 0.790020
0 0.769962 0.182037 0.849959
0 1.523062 0.621998 0.293032
0 0.808996 0.387986 0.551027
0 0.537998 0.338994 1.079004
0 1.085011 0.355955 1.384960